 Gaussian 09, Revision D.01,
 Gaussian 09:  ES64L-G09RevD.01 24-Apr-2013

 ---------------------------------------------------
 #P PBE1PBE/Def2TZVP Symmetry=None scf(maxcycle=200)
 ---------------------------------------------------

 --------------
 Gaussian input
 --------------
 Symbolic Z-matrix:
 Charge =  0 Multiplicity = 1

                          Input orientation:
 ---------------------------------------------------------------------
 Center     Atomic      Atomic             Coordinates (Angstroms)
 Number     Number       Type             X           Y           Z
 ---------------------------------------------------------------------
      1          8           0       -0.005703    0.385159    0.000000
      2          1           0       -0.796078   -0.194675    0.000000
      3          1           0        0.801781   -0.190484    0.000000
 ---------------------------------------------------------------------

 SCF Done:  E(RPBE1PBE) =  -76.3755895969     A.U. after    9 cycles

 Alpha  occ. eigenvalues --  -19.20450  -1.02531  -0.54187  -0.39394  -0.32383
 Alpha virt. eigenvalues --    0.02684   0.10092   0.37163   0.40624   0.44566
 Alpha virt. eigenvalues --    0.44886   0.58240   0.60843   1.18450   1.19693
 Alpha virt. eigenvalues --    1.31185   1.55353   1.64003   1.72629   2.01506

 Mulliken charges:
               1
     1  O   -0.662464
     2  H    0.330730
     3  H    0.331735
 Sum of Mulliken charges =   0.00000

 Dipole moment (field-independent basis, Debye):
    X=              0.0222    Y=             -2.0297    Z=              0.0000  Tot=              2.0298
 Quadrupole moment (field-independent basis, Debye-Ang):
   XX=             -4.0957   YY=             -7.4732   ZZ=             -7.6000
   XY=              0.0143   XZ=              0.0000   YZ=              0.0000

 Normal termination of Gaussian 09 at Mon Dec 11 12:02:47 2023.
